/*--------------------------------*- C++ -*----------------------------------*\
| =========                 |                                                 |
| \\      /  F ield         | OpenFOAM: The Open Source CFD Toolbox           |
|  \\    /   O peration     | Version:  2.0.1                                 |
|   \\  /    A nd           | Web:      www.OpenFOAM.com                      |
|    \\/     M anipulation  |                                                 |
\*---------------------------------------------------------------------------*/
FoamFile
{
    version     2.0;
    format      ascii;
    class       volScalarField;
    location    "0";
    object      magVorticity;
}
// * * * * * * * * * * * * * * * * * * * * * * * * * * * * * * * * * * * * * //

dimensions      [0 0 -1 0 0 0 0];

internalField   nonuniform List<scalar> 
1188
(
0
0
0
0
0
0
0
0
0
0
0
1.76789251989e-12
0
0
0
1.76789251989e-12
0
0
0
1.76789251989e-12
0
0
0
0
0
0
0
0
0
0
0
0
0
0
0
0
0
0
0
0
0
0
0
0
0
0
0
0
0
0
0
0
0
0
0
0
0
0
0
0
0
0
0
0
0
0
0
0
0
0
0
0
0
0
0
0
0
0
0
0
0
0
0
0
0
0
0
0
0
0
0
0
0
0
0
0
0
0
0
0
0
0
0
0
0
0
0
0
0
0
0
0
0
0
0
0
0
0
0
0
0
0
0
0
0
0
0
0
0
0
0
0
0
0
0
0
0
0
0
0
0
0
0
0
0
0
0
0
0
0
0
0
0
0
0
0
0
0
0
0
0
0
0
0
0
0
0
0
0
0
0
0
0
0
0
0
0
0
0
0
0
0
0
0
0
0
0
0
0
0
0
0
0
0
0
0
0
0
0
0
0
0
0
0
0
0
0
0
0
0
0
0
0
0
0
0
0
0
0
0
0
0
0
0
0
0
0
0
0
0
0
0
0
0
0
0
0
0
0
0
0
0
0
0
0
0
0
0
0
0
0
0
0
0
0
0
0
0
0
0
0
0
0
0
0
0
0
0
0
0
0
0
0
0
0
0
0
0
0
0
0
0
0
0
0
0
0
0
0
0
0
0
0
0
0
0
0
0
0
0
0
0
0
0
0
0
0
0
0
0
0
0
0
0
0
0
0
0
0
0
0
0
0
0
0
0
0
0
0
0
0
0
0
0
0
0
0
0
0
0
0
0
0
0
0
0
0
0
0
0
0
0
0
0
0
0
0
0
0
0
0
0
0
0
0
0
0
0
0
0
0
0
0
0
0
0
0
0
0
0
0
0
0
0
0
0
0
0
0
0
0
0
0
0
0
0
1.1368695408e-12
5.68797512313e-13
2.29682660266e-13
1.59162035484e-12
6.25283600482e-13
1.02318176383e-12
3.12675477203e-13
4.26327596744e-13
7.67406279122e-13
2.48798454159e-14
1.80522556126e-12
9.55204412569e-14
2.48799459994e-14
7.6738660028e-13
3.98066902176e-13
3.69513578592e-13
9.66338360196e-13
5.11598445527e-13
2.27407653904e-13
2.29692495565e-13
4.55197898416e-13
1.13686953985e-12
8.66446533142e-13
2.13494948778e-14
8.73811720796e-13
8.77229352373e-13
8.80097628692e-13
3.36439500546e-15
3.95875308909e-15
8.7136611008e-15
3.48676125452e-15
9.97377945922e-16
2.00237723632e-15
2.56301893046e-15
9.92706914919e-16
3.39758715849e-15
8.61130365914e-15
4.11372350992e-15
3.52909757625e-15
8.80097438415e-13
8.77225202366e-13
8.73811260069e-13
2.14613790643e-14
8.66446793258e-13
2.53975628143e-15
1.90303511912e-14
4.31632862823e-15
8.1452937793e-13
4.93597952294e-15
9.21543084812e-15
1.64483161374e-12
7.84872895735e-15
3.00304605169e-15
4.13060478435e-15
2.12645733246e-15
1.65415642128e-12
1.30957092497e-15
3.09071766323e-15
8.17380171204e-15
1.64483144267e-12
9.43423134925e-15
4.772990455e-15
8.14530635914e-13
4.22113850472e-15
1.90385489112e-14
2.59817149176e-15
7.45482050545e-13
8.45003668924e-15
7.53267545806e-13
7.56753219605e-13
1.51872007934e-12
7.62184651193e-13
1.52859599232e-12
1.53229292287e-12
1.53510425205e-12
2.73644047806e-15
3.07589921764e-12
3.18219038259e-16
1.19477672862e-16
1.53510422644e-12
1.53229299042e-12
1.52859626071e-12
7.62044774938e-13
7.59360548367e-13
1.51286713408e-12
7.53267818635e-13
8.59836435034e-15
7.45482690454e-13
6.9135527878e-13
6.551518794e-15
8.06133200183e-15
7.02368985125e-13
7.05404359094e-13
5.9043637789e-15
5.19093017351e-16
2.93444133874e-16
1.4271506721e-12
9.56835509688e-16
1.16640403097e-16
1.43000201786e-12
8.88435715455e-16
1.42715108479e-12
4.09838579683e-16
2.37734362857e-16
3.33757409112e-15
7.05407083575e-13
7.02366880666e-13
7.88566304656e-15
6.3392324215e-15
6.91357073528e-13
1.09271117144e-14
1.68695761518e-14
9.10392580196e-15
6.52100155759e-13
5.16774075073e-17
5.89194477288e-15
4.78252216877e-15
2.59064951471e-15
2.74926861443e-15
2.10810854538e-15
1.32972495757e-12
1.92800372066e-15
2.02704041755e-15
2.80018349053e-15
2.76417041141e-15
5.09923483982e-15
6.57888116526e-13
2.88848109143e-16
6.52100357724e-13
8.76532147741e-15
1.66357075119e-14
1.09271117144e-14
2.91595903746e-15
5.98333052126e-13
1.89884293956e-14
6.05493056987e-13
1.35620466729e-14
6.11302027481e-13
1.22712707897e-12
5.42296851994e-15
1.23371172773e-12
2.20968003437e-15
2.47314971153e-12
1.23657489283e-12
2.41827413066e-15
1.23371071172e-12
5.57265899451e-15
1.22712689507e-12
6.11302577084e-13
1.33549698894e-14
6.05490146884e-13
1.91316829473e-14
5.98332636045e-13
2.87523967154e-15
5.50865994026e-13
5.55141375488e-13
2.40917524633e-15
5.65141583082e-15
5.65328510189e-13
3.461751779e-15
1.14057458928e-12
1.14432060677e-12
5.48275648851e-15
2.15067109091e-15
7.22394340115e-16
6.86436608023e-16
1.97214109839e-15
5.41358299275e-15
1.1443204001e-12
1.1405749206e-12
3.37964760622e-15
5.65327316183e-13
5.62177056701e-13
5.58702536237e-13
1.54688067092e-14
5.50866247794e-13
5.10562051786e-13
5.14928947994e-13
5.18508948523e-13
8.47666285777e-15
4.80247563848e-15
1.88402436319e-15
3.93892323458e-15
1.28556052136e-15
1.3008175504e-15
1.0687004558e-12
1.06966662249e-12
1.06966638986e-12
1.0687004581e-12
1.10762253625e-15
1.34798629481e-15
5.38104267019e-16
1.65450834284e-15
4.88498104643e-15
8.16555377544e-15
5.18511717131e-13
5.14939255107e-13
5.10562852495e-13
9.4626722229e-13
4.7725169834e-13
4.81128037524e-13
4.84600024056e-13
4.87669717392e-13
4.90404857982e-13
4.92730425497e-13
8.88530036708e-16
5.14641524804e-16
9.94033299946e-13
4.99831463336e-16
1.02471257867e-16
9.9403356879e-13
4.22993034086e-18
9.89237125137e-13
4.92730134767e-13
7.33003880801e-16
4.87671943116e-13
4.84595854477e-13
4.81135177805e-13
4.77249326041e-13
9.46249282129e-13
8.76720289207e-13
7.08360259819e-16
4.46397356138e-13
4.4981690122e-13
4.52951945537e-13
3.69618289633e-16
3.82512347393e-15
6.31894662347e-16
1.52608608152e-15
1.74147183363e-16
9.25643338107e-13
3.00526460318e-16
6.91566836504e-17
1.55980760063e-15
7.54594468217e-16
4.58035926953e-13
6.42923027449e-16
4.52951685213e-13
4.49820247607e-13
4.46398090832e-13
6.37030133466e-16
8.76713734263e-13
4.06067460452e-13
3.03890651834e-15
4.1407847804e-13
4.1758349518e-13
9.99698297119e-16
1.07761237612e-15
1.47484589037e-15
8.55414197651e-13
9.95805233749e-16
9.749155463e-16
7.77214880813e-17
8.61217333427e-13
9.83997525592e-16
7.37030052698e-16
8.55414118574e-13
1.92369699604e-15
1.6900992572e-15
9.19066445404e-16
4.17583912991e-13
4.14076817689e-13
3.04540257766e-15
4.06067486173e-13
3.76084072723e-13
3.80224946126e-13
2.14999199792e-15
6.23933922729e-15
3.9076220379e-13
1.17477678892e-15
6.14524097167e-16
3.9777420968e-13
4.97911666879e-16
1.70465139592e-16
1.16819532655e-16
2.5885776665e-16
8.00393453055e-13
3.89137866301e-16
7.95548653898e-13
3.95865938641e-13
1.30516550761e-15
3.90757876839e-13
5.80244068792e-15
2.1119390422e-15
3.80224866277e-13
3.76083962363e-13
3.48237522053e-13
7.04743403447e-13
3.56243761495e-13
3.59757015175e-13
3.62923019128e-13
1.01436144287e-15
4.15323545868e-16
8.92506200989e-16
3.71423072692e-13
7.44800812051e-13
8.56253106951e-17
2.08195936704e-17
6.01838320986e-17
1.56097276717e-17
3.6997210032e-13
8.37671275491e-16
3.65698756961e-13
3.62922850114e-13
3.59756675223e-13
3.56238524034e-13
3.44257385509e-16
3.48236583185e-13
3.22361068417e-13
3.265056284e-13
6.60732970804e-13
3.33901554127e-13
6.52735248596e-16
4.8272450181e-16
3.4221852448e-13
8.07559227339e-16
3.45599532535e-13
3.2473807271e-16
3.4707464758e-13
6.94149294761e-13
3.46581383586e-13
3.45599359279e-13
8.26843389542e-16
1.23452072921e-15
3.39854615392e-13
9.63704945558e-16
3.33900285787e-13
6.60733431567e-13
3.26505848899e-13
3.22359722942e-13
5.96659931298e-13
3.02482076099e-13
3.06343460697e-13
3.09880171433e-13
3.13061565993e-13
3.158483458e-13
6.36437776659e-13
3.72574064985e-16
2.136499974e-16
1.78805804053e-16
3.2309424603e-13
1.54809585201e-17
3.22598501458e-13
4.3618031254e-16
2.82615498004e-16
6.36437437889e-13
3.1584755747e-13
3.13060683268e-13
3.09880101802e-13
3.0634396123e-13
3.02481830601e-13
5.96660101443e-13
2.76024541473e-13
2.80169202751e-13
2.8402931857e-13
3.67120648961e-16
2.90750738757e-13
9.42843594979e-16
2.95925408758e-13
2.97860825308e-13
2.99332220136e-13
1.77617071742e-16
6.0164083456e-13
6.01640836138e-13
3.26637368115e-16
2.99332446524e-13
2.10933697711e-16
2.95924869949e-13
2.93546891446e-13
5.81501692912e-13
5.38069958783e-16
5.6805752507e-13
2.80169385543e-13
2.76023932614e-13
2.55311625331e-13
5.18893007751e-13
5.26603180456e-13
2.66840893699e-13
2.70028035367e-13
2.72829671115e-13
2.75215754969e-13
2.20582354473e-17
3.02428897353e-16
2.79631542055e-13
5.60264351534e-13
2.80132178504e-13
2.79631534811e-13
8.63274405838e-17
2.27785043599e-16
2.75215726662e-13
2.72829716505e-13
2.70027918087e-13
5.33681218898e-13
2.63301638962e-13
5.18892095029e-13
2.55311048109e-13
1.76789251989e-12
0
0
0
1.76789251989e-12
0
0
0
1.76789251989e-12
0
0
0
0
0
0
0
0
0
0
0
0
0
0
0
0
0
0
0
0
0
0
0
0
0
0
0
0
0
0
0
0
0
0
0
0
0
0
0
0
0
0
0
0
0
0
0
0
0
0
0
0
0
0
0
0
0
0
0
0
0
0
0
0
0
0
0
0
0
0
0
0
0
0
0
0
0
0
0
0
0
0
0
0
0
0
0
0
0
0
0
0
0
0
0
0
0
0
0
0
0
0
0
0
0
0
0
0
0
0
0
0
0
0
0
0
0
0
0
0
0
0
0
0
0
0
0
0
0
0
0
0
0
0
0
0
0
0
0
0
0
0
0
0
0
0
0
0
0
0
0
0
0
0
0
0
0
0
0
0
0
0
0
0
0
0
0
0
0
0
0
0
0
0
0
0
0
0
0
0
0
0
0
0
0
0
0
0
0
0
0
0
0
0
0
0
0
0
0
0
0
0
0
0
0
0
0
0
0
0
0
0
0
0
0
0
0
0
0
0
0
0
0
0
0
0
0
0
0
0
0
0
0
0
0
0
0
0
0
0
0
0
0
0
0
0
0
0
0
0
0
0
0
0
0
0
0
0
0
0
0
0
0
0
0
0
0
0
0
0
0
0
0
0
0
0
0
0
0
0
0
0
0
0
0
0
0
0
0
0
0
0
0
0
0
0
0
0
0
0
0
0
0
0
0
0
0
0
0
0
0
0
0
0
0
0
0
0
0
0
0
0
0
0
0
0
0
0
0
0
0
0
0
0
0
0
0
0
0
0
0
0
0
0
0
0
0
0
0
0
0
0
0
0
0
0
0
0
0
0
0
0
0
0
0
0
0
0
0
0
0
0
0
0
0
0
0
0
0
0
0
0
0
0
0
0
0
)
;

boundaryField
{
    INLE1
    {
        type            calculated;
        value           uniform 0;
    }
    PRES2
    {
        type            calculated;
        value           uniform 0;
    }
    WALL3
    {
        type            calculated;
        value           nonuniform List<scalar> 
66
(
0
0
0
0
0
0
0
0
0
0
0
0
0
0
0
0
0
0
0
0
0
0
5.92374393132e-16
9.77435345808e-16
3.54317421849e-16
4.02637496243e-16
4.21700607159e-16
3.40993809793e-16
4.92160241711e-16
2.20582354473e-17
3.02428897353e-16
6.38129880919e-17
6.44533274388e-17
5.07180716908e-17
4.54184968626e-18
8.63274405838e-17
2.27785043599e-16
4.76067808739e-16
3.75558484469e-16
3.3836923393e-16
2.04135910367e-16
2.38848859509e-16
9.03901192825e-17
2.36991225534e-16
0
0
0
0
0
0
0
0
0
0
0
0
0
0
0
0
0
0
0
0
0
0
)
;
    }
    WALL4
    {
        type            calculated;
        value           nonuniform List<scalar> 
66
(
0
0
0
0
0
0
0
0
0
0
0
0
0
0
0
0
0
0
0
0
0
0
9.09496156256e-13
4.55201423957e-13
2.29682660266e-13
4.54763544211e-13
9.0949882198e-13
1.13688856704e-13
4.7887830994e-15
6.82122248386e-13
3.69524017819e-13
4.12115441604e-13
2.06083001476e-13
2.57587039641e-13
4.19220863832e-13
3.41061515897e-13
5.68548279625e-13
4.81372518155e-15
6.80438599737e-16
2.80245881576e-15
6.82132353235e-13
4.55911183645e-13
4.55197898416e-13
9.09496155069e-13
0
0
0
0
0
0
0
0
0
0
0
0
0
0
0
0
0
0
0
0
0
0
)
;
    }
    defaultFaces
    {
        type            empty;
    }
}


// ************************************************************************* //
