/*--------------------------------*- C++ -*----------------------------------*\
| =========                 |                                                 |
| \\      /  F ield         | OpenFOAM: The Open Source CFD Toolbox           |
|  \\    /   O peration     | Version:  2.0.1                                 |
|   \\  /    A nd           | Web:      www.OpenFOAM.com                      |
|    \\/     M anipulation  |                                                 |
\*---------------------------------------------------------------------------*/
FoamFile
{
    version     2.0;
    format      ascii;
    class       volVectorField;
    location    "0";
    object      vorticity;
}
// * * * * * * * * * * * * * * * * * * * * * * * * * * * * * * * * * * * * * //

dimensions      [0 0 -1 0 0 0 0];

internalField   nonuniform List<vector> 
1188
(
(0 -0 0)
(0 -0 0)
(0 -0 0)
(0 -0 0)
(0 -0 0)
(0 -0 0)
(0 -0 0)
(0 -0 0)
(0 -0 0)
(0 -0 0)
(0 -0 0)
(0 -0 -1.76789251989e-12)
(0 -0 0)
(0 -0 0)
(0 -0 0)
(0 -0 -1.76789251989e-12)
(0 -0 0)
(0 -0 0)
(0 -0 0)
(0 -0 -1.76789251989e-12)
(0 -0 0)
(0 -0 0)
(0 -0 0)
(0 -0 0)
(0 -0 0)
(0 -0 0)
(0 -0 0)
(0 -0 0)
(0 -0 0)
(0 -0 0)
(0 -0 0)
(0 -0 0)
(0 -0 0)
(0 -0 0)
(0 -0 0)
(0 -0 0)
(0 -0 0)
(0 -0 0)
(0 -0 0)
(0 -0 0)
(0 -0 0)
(0 -0 0)
(0 -0 0)
(0 -0 0)
(0 -0 0)
(0 -0 0)
(0 -0 0)
(0 -0 0)
(0 -0 0)
(0 -0 0)
(0 -0 0)
(0 -0 0)
(0 -0 0)
(0 -0 0)
(0 -0 0)
(0 -0 0)
(0 -0 0)
(0 -0 0)
(0 -0 0)
(0 -0 0)
(0 -0 0)
(0 -0 0)
(0 -0 0)
(0 -0 0)
(0 -0 0)
(0 -0 0)
(0 -0 0)
(0 -0 0)
(0 -0 0)
(0 -0 0)
(0 -0 0)
(0 -0 0)
(0 -0 0)
(0 -0 0)
(0 -0 0)
(0 -0 0)
(0 -0 0)
(0 -0 0)
(0 -0 0)
(0 -0 0)
(0 -0 0)
(0 -0 0)
(0 -0 0)
(0 -0 0)
(0 -0 0)
(0 -0 0)
(0 -0 0)
(0 -0 0)
(0 -0 0)
(0 -0 0)
(0 -0 0)
(0 -0 0)
(0 -0 0)
(0 -0 0)
(0 -0 0)
(0 -0 0)
(0 -0 0)
(0 -0 0)
(0 -0 0)
(0 -0 0)
(0 -0 0)
(0 -0 0)
(0 -0 0)
(0 -0 0)
(0 -0 0)
(0 -0 0)
(0 -0 0)
(0 -0 0)
(0 -0 0)
(0 -0 0)
(0 -0 0)
(0 -0 0)
(0 -0 0)
(0 -0 0)
(0 -0 0)
(0 -0 0)
(0 -0 0)
(0 -0 0)
(0 -0 0)
(0 -0 0)
(0 -0 0)
(0 -0 0)
(0 -0 0)
(0 -0 0)
(0 -0 0)
(0 -0 0)
(0 -0 0)
(0 -0 0)
(0 -0 0)
(0 -0 0)
(0 -0 0)
(0 -0 0)
(0 -0 0)
(0 -0 0)
(0 -0 0)
(0 -0 0)
(0 -0 0)
(0 -0 0)
(0 -0 0)
(0 -0 0)
(0 -0 0)
(0 -0 0)
(0 -0 0)
(0 -0 0)
(0 -0 0)
(0 -0 0)
(0 -0 0)
(0 -0 0)
(0 -0 0)
(0 -0 0)
(0 -0 0)
(0 -0 0)
(0 -0 0)
(0 -0 0)
(0 -0 0)
(0 -0 0)
(0 -0 0)
(0 -0 0)
(0 -0 0)
(0 -0 0)
(0 -0 0)
(0 -0 0)
(0 -0 0)
(0 -0 0)
(0 -0 0)
(0 -0 0)
(0 -0 0)
(0 -0 0)
(0 -0 0)
(0 -0 0)
(0 -0 0)
(0 -0 0)
(0 -0 0)
(0 -0 0)
(0 -0 0)
(0 -0 0)
(0 -0 0)
(0 -0 0)
(0 -0 0)
(0 -0 0)
(0 -0 0)
(0 -0 0)
(0 -0 0)
(0 -0 0)
(0 -0 0)
(0 -0 0)
(0 -0 0)
(0 -0 0)
(0 -0 0)
(0 -0 0)
(0 -0 0)
(0 -0 0)
(0 -0 0)
(0 -0 0)
(0 -0 0)
(0 -0 0)
(0 -0 0)
(0 -0 0)
(0 -0 0)
(0 -0 0)
(0 -0 0)
(0 -0 0)
(0 -0 0)
(0 -0 0)
(0 -0 0)
(0 -0 0)
(0 -0 0)
(0 -0 0)
(0 -0 0)
(0 -0 0)
(0 -0 0)
(0 -0 0)
(0 -0 0)
(0 -0 0)
(0 -0 0)
(0 -0 0)
(0 -0 0)
(0 -0 0)
(0 -0 0)
(0 -0 0)
(0 -0 0)
(0 -0 0)
(0 -0 0)
(0 -0 0)
(0 -0 0)
(0 -0 0)
(0 -0 0)
(0 -0 0)
(0 -0 0)
(0 -0 0)
(0 -0 0)
(0 -0 0)
(0 -0 0)
(0 -0 0)
(0 -0 0)
(0 -0 0)
(0 -0 0)
(0 -0 0)
(0 -0 0)
(0 -0 0)
(0 -0 0)
(0 -0 0)
(0 -0 0)
(0 -0 0)
(0 -0 0)
(0 -0 0)
(0 -0 0)
(0 -0 0)
(0 -0 0)
(0 -0 0)
(0 -0 0)
(0 -0 0)
(0 -0 0)
(0 -0 0)
(0 -0 0)
(0 -0 0)
(0 -0 0)
(0 -0 0)
(0 -0 0)
(0 -0 0)
(0 -0 0)
(0 -0 0)
(0 -0 0)
(0 -0 0)
(0 -0 0)
(0 -0 0)
(0 -0 0)
(0 -0 0)
(0 -0 0)
(0 -0 0)
(0 -0 0)
(0 -0 0)
(0 -0 0)
(0 -0 0)
(0 -0 0)
(0 -0 0)
(0 -0 0)
(0 -0 0)
(0 -0 0)
(0 -0 0)
(0 -0 0)
(0 -0 0)
(0 -0 0)
(0 -0 0)
(0 -0 0)
(0 -0 0)
(0 -0 0)
(0 -0 0)
(0 -0 0)
(0 -0 0)
(0 -0 0)
(0 -0 0)
(0 -0 0)
(0 -0 0)
(0 -0 0)
(0 -0 0)
(0 -0 0)
(0 -0 0)
(0 -0 0)
(0 -0 0)
(0 -0 0)
(0 -0 0)
(0 -0 0)
(0 -0 0)
(0 -0 0)
(0 -0 0)
(0 -0 0)
(0 -0 0)
(0 -0 0)
(0 -0 0)
(0 -0 0)
(0 -0 0)
(0 -0 0)
(0 -0 0)
(0 -0 0)
(0 -0 0)
(0 -0 0)
(0 -0 0)
(0 -0 0)
(0 -0 0)
(0 -0 0)
(0 -0 0)
(0 -0 0)
(0 -0 0)
(0 -0 0)
(0 -0 0)
(0 -0 0)
(0 -0 0)
(0 -0 0)
(0 -0 0)
(0 -0 0)
(0 -0 0)
(0 -0 0)
(0 -0 0)
(0 -0 0)
(0 -0 0)
(0 -0 0)
(0 -0 0)
(0 -0 0)
(0 -0 0)
(0 -0 0)
(0 -0 0)
(0 -0 0)
(0 -0 0)
(0 -0 0)
(0 -0 0)
(0 -0 0)
(0 -0 0)
(0 -0 0)
(0 -0 0)
(0 -0 0)
(0 -0 0)
(0 -0 0)
(0 -0 0)
(0 -0 0)
(0 -0 0)
(0 -0 0)
(0 -0 0)
(0 -0 0)
(0 -0 0)
(0 -0 0)
(0 -0 0)
(0 -0 0)
(0 -0 0)
(0 -0 0)
(0 -0 0)
(0 -0 0)
(0 -0 0)
(0 -0 0)
(0 -0 0)
(0 -0 0)
(0 -0 0)
(0 -0 0)
(0 -0 0)
(0 -0 0)
(0 -0 0)
(0 -0 0)
(0 -0 0)
(0 -0 0)
(0 -0 0)
(0 -0 0)
(0 -0 0)
(0 -0 0)
(0 -0 0)
(0 -0 0)
(0 -0 0)
(0 -0 0)
(0 -0 0)
(0 -0 0)
(0 -0 0)
(0 -0 0)
(0 -0 0)
(0 -0 0)
(0 -0 0)
(0 -0 0)
(0 -0 0)
(3.94430452611e-31 1.6265581602e-15 -1.13686837722e-12)
(1.97215226305e-31 2.03269091254e-14 -5.68434188608e-13)
(-7.88860905221e-31 -3.24859376089e-14 -2.27373675443e-13)
(0 3.83770829022e-15 -1.5916157281e-12)
(9.86076131526e-32 2.73763205796e-15 -6.25277607469e-13)
(-2.46519032882e-32 -6.77545168413e-16 -1.02318153949e-12)
(0 4.7887830994e-15 -3.12638803734e-13)
(0 -1.2911942575e-15 4.26325641456e-13)
(0 -5.55760122087e-15 -7.67386154621e-13)
(0 -7.3468239724e-16 -2.48689957516e-14)
(0 3.24871277113e-15 -1.80522263804e-12)
(0 2.80728729323e-15 9.54791801178e-14)
(0 7.38080782743e-16 -2.48689957516e-14)
(0 -8.27034384213e-16 -7.67386154621e-13)
(0 -1.13894462743e-14 3.97903932026e-13)
(0 -4.81372518155e-15 -3.69482222595e-13)
(-2.46519032882e-32 6.80438599737e-16 -9.66338120634e-13)
(0 -2.80245881576e-15 -5.11590769747e-13)
(0 -3.93100107023e-15 2.27373675443e-13)
(-7.88860905221e-31 3.25554025368e-14 -2.27373675443e-13)
(1.97215226305e-31 -2.02478044263e-14 -4.54747350886e-13)
(3.94430452611e-31 -1.62589447176e-15 -1.13686837722e-12)
(0 4.68201498644e-15 8.66433882954e-13)
(0 -2.13494948778e-14 0)
(0 -1.99158294872e-15 8.73809451195e-13)
(0 1.44530960917e-14 8.77110280796e-13)
(0 -1.34075942155e-15 -8.8009660742e-13)
(0 3.36439500546e-15 0)
(0 -3.95875308909e-15 0)
(0 8.7136611008e-15 0)
(0 -3.48676125452e-15 0)
(0 9.97377945922e-16 0)
(0 -2.00237723632e-15 0)
(0 -2.56301893046e-15 0)
(0 -9.92706914919e-16 0)
(0 3.39758715849e-15 0)
(0 -8.61130365914e-15 0)
(0 4.11372350992e-15 0)
(0 -3.52909757625e-15 0)
(0 1.20942628704e-15 -8.8009660742e-13)
(0 -1.41989784605e-14 8.77110280796e-13)
(0 1.77798363728e-15 8.73809451195e-13)
(0 2.14613790643e-14 0)
(0 -4.72990665185e-15 8.66433882954e-13)
(0 -2.53975628143e-15 0)
(0 1.90303511912e-14 0)
(0 4.31632862823e-15 0)
(0 7.4887439671e-15 8.14494951627e-13)
(0 -4.93597952294e-15 0)
(0 -9.21543084812e-15 0)
(0 -8.97149560149e-16 1.64483136907e-12)
(0 -7.84872895735e-15 0)
(0 3.00304605169e-15 0)
(0 4.13060478435e-15 0)
(0 2.12645733246e-15 0)
(0 1.89472746956e-15 1.65415533614e-12)
(0 -1.30957092497e-15 0)
(0 -3.09071766323e-15 0)
(0 8.17380171204e-15 0)
(0 4.92071422624e-16 1.64483136907e-12)
(0 9.43423134925e-15 0)
(0 4.772990455e-15 0)
(0 -7.62434371212e-15 8.14494951627e-13)
(0 -4.22113850472e-15 0)
(0 -1.90385489112e-14 0)
(0 2.59817149176e-15 0)
(0 -1.11169992309e-14 7.45399154825e-13)
(0 -8.45003668924e-15 0)
(0 2.1333850769e-14 -7.52965379268e-13)
(0 -2.53597034555e-14 -7.5632818328e-13)
(0 -1.0564605929e-15 1.51871971189e-12)
(0 1.55385136745e-14 -7.62026244369e-13)
(0 2.45143789717e-15 -1.52859402661e-12)
(0 1.49934023712e-15 -1.53229218932e-12)
(0 3.64887219858e-16 1.53510420868e-12)
(0 -2.73644047806e-15 0)
(0 -1.06698808401e-15 -3.07589903258e-12)
(0 -3.18219038259e-16 0)
(0 1.19477672862e-16 0)
(0 -2.3351847062e-16 1.53510420868e-12)
(0 -1.56684865739e-15 -1.53229218932e-12)
(0 -2.61343949007e-15 -1.52859402661e-12)
(0 -5.31431107302e-15 -7.62026244369e-13)
(0 1.02547210999e-15 7.59359855947e-13)
(0 2.52523677826e-14 -1.51265636656e-12)
(0 -2.13434817867e-14 -7.52965379268e-13)
(0 8.59836435034e-15 0)
(0 1.11598276413e-14 7.45399154825e-13)
(0 1.16416011885e-14 -6.91257256467e-13)
(0 6.551518794e-15 0)
(0 -8.06133200183e-15 0)
(0 1.02656615519e-14 -7.02293960859e-13)
(0 9.10662888806e-15 -7.05345574268e-13)
(0 -5.9043637789e-15 0)
(0 -5.19093017351e-16 0)
(0 -2.93444133874e-16 0)
(0 -2.61192885706e-15 -1.42714828196e-12)
(0 -9.56835509688e-16 0)
(0 -1.16640403097e-16 0)
(0 1.17881567311e-15 1.43000153198e-12)
(0 8.88435715455e-16 0)
(0 2.8284456803e-15 -1.42714828196e-12)
(0 4.09838579683e-16 0)
(0 2.37734362857e-16 0)
(0 -3.33757409112e-15 0)
(0 -9.31527875935e-15 -7.05345574268e-13)
(0 -1.01206520334e-14 7.02293960859e-13)
(0 7.88566304656e-15 0)
(0 -6.3392324215e-15 0)
(0 -1.17477018576e-14 -6.91257256467e-13)
(0 1.09271117144e-14 0)
(0 -1.68695761518e-14 0)
(0 9.10392580196e-15 0)
(0 -1.36849583587e-15 6.52098719796e-13)
(0 5.16774075073e-17 0)
(0 -5.89194477288e-15 0)
(0 -4.78252216877e-15 0)
(0 2.59064951471e-15 0)
(0 2.74926861443e-15 0)
(0 2.10810854538e-15 0)
(0 -3.68106570484e-16 1.32972490662e-12)
(0 -1.92800372066e-15 0)
(0 -2.02704041755e-15 0)
(0 -2.80018349053e-15 0)
(0 -2.76417041141e-15 0)
(0 5.09923483982e-15 0)
(0 5.75063319648e-15 -6.57862982759e-13)
(0 -2.88848109143e-16 0)
(0 1.46156917526e-15 -6.52098719796e-13)
(0 -8.76532147741e-15 0)
(0 1.66357075119e-14 0)
(0 -1.09271117144e-14 0)
(0 -2.91595903746e-15 0)
(0 7.73568481529e-15 5.98283043757e-13)
(0 -1.89884293956e-14 0)
(0 5.31268098911e-15 -6.05469749435e-13)
(0 -1.35620466729e-14 0)
(0 6.8818016776e-15 6.11263289923e-13)
(0 -9.58571824332e-16 -1.22712670457e-12)
(0 -5.42296851994e-15 0)
(0 -4.0236639552e-15 1.23370516627e-12)
(0 -2.20968003437e-15 0)
(0 -5.34129547975e-17 -2.47314971095e-12)
(0 -3.0397055239e-16 1.23657485547e-12)
(0 2.41827413066e-15 0)
(0 3.69904564806e-15 1.23370516627e-12)
(0 5.57265899451e-15 0)
(0 6.83768777616e-16 -1.22712670457e-12)
(0 -6.93045035137e-15 6.11263289923e-13)
(0 1.33549698894e-14 0)
(0 -4.96995910013e-15 -6.05469749435e-13)
(0 1.91316829473e-14 0)
(0 -7.70343495455e-15 5.98283043757e-13)
(0 2.87523967154e-15 0)
(0 -2.24184225795e-15 5.50861432229e-13)
(0 -1.55654733721e-14 5.5492311433e-13)
(0 2.40917524633e-15 0)
(0 -5.65141583082e-15 0)
(0 9.08612093117e-15 5.6525548811e-13)
(0 -3.461751779e-15 0)
(0 4.34373875361e-15 1.14056631795e-12)
(0 2.17645874236e-15 -1.14431853699e-12)
(0 5.48275648851e-15 0)
(0 2.15067109091e-15 0)
(0 7.22394340115e-16 0)
(0 6.86436608023e-16 0)
(0 -1.97214109839e-15 0)
(0 -5.41358299275e-15 0)
(0 -2.06494078801e-15 -1.14431853699e-12)
(0 -4.42988177612e-15 1.14056631795e-12)
(0 3.37964760622e-15 0)
(0 -9.01152506382e-15 5.6525548811e-13)
(0 5.12275119457e-15 5.62153716079e-13)
(0 -2.05549529821e-15 5.58698755088e-13)
(0 1.54688067092e-14 0)
(0 2.30335451746e-15 5.50861432229e-13)
(0 -1.86309465665e-15 -5.10558652461e-13)
(0 1.70587265146e-14 -5.14646307023e-13)
(0 8.26059288328e-15 5.18443142788e-13)
(0 8.47666285777e-15 0)
(0 4.80247563848e-15 0)
(0 1.88402436319e-15 0)
(0 3.93892323458e-15 0)
(0 -1.28556052136e-15 0)
(0 -1.3008175504e-15 0)
(0 1.12366683331e-16 -1.0687004499e-12)
(0 -1.00971649411e-15 1.06966614593e-12)
(0 -7.2239724761e-16 -1.06966614593e-12)
(0 -1.32382761607e-16 -1.0687004499e-12)
(0 1.10762253625e-15 0)
(0 1.34798629481e-15 0)
(0 -5.38104267019e-16 0)
(0 -1.65450834284e-15 0)
(0 -4.88498104643e-15 0)
(0 -8.16555377544e-15 0)
(0 -8.4325855026e-15 5.18443142788e-13)
(0 -1.73670699408e-14 -5.14646307023e-13)
(0 2.07092867822e-15 -5.10558652461e-13)
(0 -5.8414603947e-15 9.46249191979e-13)
(0 -4.13525254694e-15 4.772337826e-13)
(0 -8.73988205922e-15 -4.81048649259e-13)
(0 -7.88688027195e-15 -4.84535840196e-13)
(0 -2.38226956902e-15 -4.87663898656e-13)
(0 -1.01298308656e-15 -4.90403811769e-13)
(0 -9.32754795711e-16 -4.92729542628e-13)
(0 8.88530036708e-16 0)
(0 -5.14641524804e-16 0)
(0 -1.65020416264e-15 9.94031930186e-13)
(0 4.99831463336e-16 0)
(0 1.02471257867e-16 0)
(0 1.80489661265e-15 9.94031930186e-13)
(0 4.22993034086e-18 0)
(0 -3.96866038095e-16 -9.89237045529e-13)
(0 7.63890564141e-16 -4.92729542628e-13)
(0 7.33003880801e-16 0)
(0 2.80108010378e-15 -4.87663898656e-13)
(0 7.62638460065e-15 -4.84535840196e-13)
(0 9.12449273506e-15 -4.81048649259e-13)
(0 3.8517466318e-15 4.772337826e-13)
(0 -4.13048077636e-16 9.46249191979e-13)
(0 3.88488009329e-15 -8.76711681919e-13)
(0 7.08360259819e-16 0)
(0 8.7236814166e-15 4.46312107106e-13)
(0 2.03425627633e-15 4.49812301327e-13)
(0 5.70900096441e-16 4.52951585756e-13)
(0 3.69618289633e-16 0)
(0 -3.82512347393e-15 0)
(0 6.31894662347e-16 0)
(0 -1.52608608152e-15 0)
(0 -1.74147183363e-16 0)
(0 -3.28645757824e-17 9.25643337524e-13)
(0 3.00526460318e-16 0)
(0 6.91566836504e-17 0)
(0 1.55980760063e-15 0)
(0 -7.54594468217e-16 0)
(0 1.02842098797e-15 4.58034772403e-13)
(0 -6.42923027449e-16 0)
(0 3.00163968232e-16 4.52951585756e-13)
(0 -2.67371138056e-15 4.49812301327e-13)
(0 -8.76119561172e-15 4.46312107106e-13)
(0 -6.37030133466e-16 0)
(0 1.89700623556e-15 -8.76711681919e-13)
(0 -1.80688961225e-15 4.06063440349e-13)
(0 -3.03890651834e-15 0)
(0 -5.28183502202e-15 -4.14044790083e-13)
(0 -4.79033555505e-15 -4.17556017957e-13)
(0 -9.99698297119e-16 0)
(0 -1.07761237612e-15 0)
(0 1.47484589037e-15 0)
(0 -4.29146691388e-16 8.55414090004e-13)
(0 9.95805233749e-16 0)
(0 9.749155463e-16 0)
(0 7.77214880813e-17 0)
(0 -3.87558331456e-16 -8.61217246224e-13)
(0 -9.83997525592e-16 0)
(0 -7.37030052698e-16 0)
(0 2.21086093945e-16 8.55414090004e-13)
(0 -1.92369699604e-15 0)
(0 1.6900992572e-15 0)
(0 9.19066445404e-16 0)
(0 4.82661955352e-15 -4.17556017957e-13)
(0 5.15002452236e-15 -4.14044790083e-13)
(0 3.04540257766e-15 0)
(0 1.81266057875e-15 4.06063440349e-13)
(0 3.026795338e-15 -3.76071892416e-13)
(0 1.86334511236e-15 -3.80220380308e-13)
(0 2.14999199792e-15 0)
(0 6.23933922729e-15 0)
(0 -3.09526823928e-15 3.90749944626e-13)
(0 -1.17477678892e-15 0)
(0 6.14524097167e-16 0)
(0 2.59964549762e-16 -3.97774124731e-13)
(0 4.97911666879e-16 0)
(0 -1.70465139592e-16 0)
(0 -1.16819532655e-16 0)
(0 2.5885776665e-16 0)
(0 4.24294070042e-16 8.00393340594e-13)
(0 -3.89137866301e-16 0)
(0 -8.02183247215e-16 -7.95548249462e-13)
(0 -3.12646970701e-16 -3.9586581518e-13)
(0 1.30516550761e-15 0)
(0 2.48979645329e-15 3.90749944626e-13)
(0 -5.80244068792e-15 0)
(0 -2.1119390422e-15 0)
(0 -1.84697966519e-15 3.80220380308e-13)
(0 -3.0130517539e-15 -3.76071892416e-13)
(0 -3.66937561143e-15 3.48218189428e-13)
(0 -6.00948054504e-18 7.04743403421e-13)
(0 -3.23912877602e-15 3.56229035381e-13)
(0 4.99599020182e-16 3.59756668276e-13)
(0 4.97658913149e-16 -3.6292267792e-13)
(0 1.01436144287e-15 0)
(0 4.15323545868e-16 0)
(0 -8.92506200989e-16 0)
(0 -5.75448463104e-16 3.71422626919e-13)
(0 8.16564556112e-18 -7.44800812006e-13)
(0 8.56253106951e-17 0)
(0 2.08195936704e-17 0)
(0 -6.01838320986e-17 0)
(0 -1.56097276717e-17 0)
(0 1.5688339096e-15 3.69968774054e-13)
(0 -8.37671275491e-16 0)
(0 -1.00990662757e-15 -3.65697362489e-13)
(0 -3.53533826664e-16 -3.6292267792e-13)
(0 7.07034870667e-17 3.59756668276e-13)
(0 2.60006876028e-15 3.56229035381e-13)
(0 3.44257385509e-16 0)
(0 3.57916476637e-15 3.48218189428e-13)
(0 2.55698958206e-15 -3.22350927151e-13)
(0 -2.07752472007e-16 -3.26505562304e-13)
(0 1.91830925306e-16 -6.60732942957e-13)
(0 -1.14797400215e-15 -3.33899580719e-13)
(0 6.52735248596e-16 0)
(0 4.8272450181e-16 0)
(0 -4.00204828921e-16 3.42218290472e-13)
(0 8.07559227339e-16 0)
(0 -3.48727292283e-16 -3.45599356594e-13)
(0 3.2473807271e-16 0)
(0 -4.86919938099e-17 3.47074644164e-13)
(0 9.44948823431e-17 -6.94149288329e-13)
(0 -4.40841608999e-16 -3.46581103217e-13)
(0 4.30822047207e-17 -3.45599356594e-13)
(0 -8.26843389542e-16 0)
(0 1.23452072921e-15 0)
(0 -3.6735638188e-16 -3.39854416851e-13)
(0 9.63704945558e-16 0)
(0 6.86181224152e-16 -3.33899580719e-13)
(0 8.0354352628e-16 -6.60732942957e-13)
(0 -4.32607732073e-16 -3.26505562304e-13)
(0 -2.38133153142e-15 -3.22350927151e-13)
(0 1.07195607946e-15 5.96658968362e-13)
(0 6.40284541146e-16 -3.02481398431e-13)
(0 4.20944828027e-16 3.06343171488e-13)
(0 3.33949711985e-16 3.09879991489e-13)
(0 -1.38407696386e-15 -3.13058506405e-13)
(0 7.19493641931e-16 3.15847526306e-13)
(0 -6.56669738643e-16 -6.36437437887e-13)
(0 3.72574064985e-16 0)
(0 -2.136499974e-16 0)
(0 -1.78805804053e-16 0)
(0 -4.05719188335e-17 3.23094243482e-13)
(0 -1.54809585201e-17 0)
(0 -4.62406218539e-17 -3.22598498144e-13)
(0 4.3618031254e-16 0)
(0 -2.82615498004e-16 0)
(0 1.80900754447e-18 -6.36437437887e-13)
(0 -1.40307672776e-16 3.15847526306e-13)
(0 -1.16746535967e-15 -3.13058506405e-13)
(0 2.6147230652e-16 3.09879991489e-13)
(0 -6.95603864755e-16 3.06343171488e-13)
(0 -5.11318731017e-16 -3.02481398431e-13)
(0 -1.16281008099e-15 5.96658968362e-13)
(0 -8.42737611778e-16 -2.76023254978e-13)
(0 -5.57559032949e-16 2.80168647957e-13)
(0 6.35708344754e-16 2.84028607154e-13)
(0 3.67120648961e-16 0)
(0 -1.64577382332e-16 2.90750692178e-13)
(0 -9.42843594979e-16 0)
(0 6.16191850934e-16 2.95924767223e-13)
(0 -4.62022204848e-16 2.97860466978e-13)
(0 4.58227265973e-16 2.99331869401e-13)
(0 1.77617071742e-16 0)
(0 -1.61085482094e-17 -6.01640834344e-13)
(0 -4.6462855167e-17 6.01640834344e-13)
(0 3.26637368115e-16 0)
(0 -5.87794975661e-16 2.99331869401e-13)
(0 2.10933697711e-16 0)
(0 -2.46572870147e-16 2.95924767223e-13)
(0 6.08616864218e-16 2.93546260517e-13)
(0 -5.9904278189e-16 5.81501384356e-13)
(0 5.38069958783e-16 0)
(0 -5.94188931817e-16 5.68057214309e-13)
(0 6.42882288348e-16 2.80168647957e-13)
(0 6.116264327e-16 -2.76023254978e-13)
(0 -5.92374393132e-16 -2.55310938116e-13)
(0 9.77435345808e-16 -5.18892087156e-13)
(0 -3.54317421849e-16 -5.26603061257e-13)
(0 -4.02637496243e-16 -2.66840589928e-13)
(0 4.21700607159e-16 -2.70027706084e-13)
(0 -3.40993809793e-16 -2.72829458021e-13)
(0 4.92160241711e-16 -2.75215314911e-13)
(0 2.20582354473e-17 0)
(0 -3.02428897353e-16 0)
(0 6.38129880919e-17 2.79631534774e-13)
(0 6.44533274388e-17 5.60264347826e-13)
(0 5.07180716908e-17 -2.80132173913e-13)
(0 -4.54184968626e-18 2.79631534774e-13)
(0 -8.63274405838e-17 0)
(0 -2.27785043599e-16 0)
(0 4.76067808739e-16 -2.75215314911e-13)
(0 -3.75558484469e-16 -2.72829458021e-13)
(0 3.3836923393e-16 -2.70027706084e-13)
(0 -2.04135910367e-16 -5.33681179856e-13)
(0 -2.38848859509e-16 -2.63301530629e-13)
(0 -9.03901192825e-17 -5.18892087156e-13)
(0 2.36991225534e-16 -2.55310938116e-13)
(0 -0 -1.76789251989e-12)
(0 -0 0)
(0 -0 0)
(0 -0 0)
(0 -0 -1.76789251989e-12)
(0 -0 0)
(0 -0 0)
(0 -0 0)
(0 -0 -1.76789251989e-12)
(0 -0 0)
(0 -0 0)
(0 -0 0)
(0 -0 0)
(0 -0 0)
(0 -0 0)
(0 -0 0)
(0 -0 0)
(0 -0 0)
(0 -0 0)
(0 -0 0)
(0 -0 0)
(0 -0 0)
(0 -0 0)
(0 -0 0)
(0 -0 0)
(0 -0 0)
(0 -0 0)
(0 -0 0)
(0 -0 0)
(0 -0 0)
(0 -0 0)
(0 -0 0)
(0 -0 0)
(0 -0 0)
(0 -0 0)
(0 -0 0)
(0 -0 0)
(0 -0 0)
(0 -0 0)
(0 -0 0)
(0 -0 0)
(0 -0 0)
(0 -0 0)
(0 -0 0)
(0 -0 0)
(0 -0 0)
(0 -0 0)
(0 -0 0)
(0 -0 0)
(0 -0 0)
(0 -0 0)
(0 -0 0)
(0 -0 0)
(0 -0 0)
(0 -0 0)
(0 -0 0)
(0 -0 0)
(0 -0 0)
(0 -0 0)
(0 -0 0)
(0 -0 0)
(0 -0 0)
(0 -0 0)
(0 -0 0)
(0 -0 0)
(0 -0 0)
(0 -0 0)
(0 -0 0)
(0 -0 0)
(0 -0 0)
(0 -0 0)
(0 -0 0)
(0 -0 0)
(0 -0 0)
(0 -0 0)
(0 -0 0)
(0 -0 0)
(0 -0 0)
(0 -0 0)
(0 -0 0)
(0 -0 0)
(0 -0 0)
(0 -0 0)
(0 -0 0)
(0 -0 0)
(0 -0 0)
(0 -0 0)
(0 -0 0)
(0 -0 0)
(0 -0 0)
(0 -0 0)
(0 -0 0)
(0 -0 0)
(0 -0 0)
(0 -0 0)
(0 -0 0)
(0 -0 0)
(0 -0 0)
(0 -0 0)
(0 -0 0)
(0 -0 0)
(0 -0 0)
(0 -0 0)
(0 -0 0)
(0 -0 0)
(0 -0 0)
(0 -0 0)
(0 -0 0)
(0 -0 0)
(0 -0 0)
(0 -0 0)
(0 -0 0)
(0 -0 0)
(0 -0 0)
(0 -0 0)
(0 -0 0)
(0 -0 0)
(0 -0 0)
(0 -0 0)
(0 -0 0)
(0 -0 0)
(0 -0 0)
(0 -0 0)
(0 -0 0)
(0 -0 0)
(0 -0 0)
(0 -0 0)
(0 -0 0)
(0 -0 0)
(0 -0 0)
(0 -0 0)
(0 -0 0)
(0 -0 0)
(0 -0 0)
(0 -0 0)
(0 -0 0)
(0 -0 0)
(0 -0 0)
(0 -0 0)
(0 -0 0)
(0 -0 0)
(0 -0 0)
(0 -0 0)
(0 -0 0)
(0 -0 0)
(0 -0 0)
(0 -0 0)
(0 -0 0)
(0 -0 0)
(0 -0 0)
(0 -0 0)
(0 -0 0)
(0 -0 0)
(0 -0 0)
(0 -0 0)
(0 -0 0)
(0 -0 0)
(0 -0 0)
(0 -0 0)
(0 -0 0)
(0 -0 0)
(0 -0 0)
(0 -0 0)
(0 -0 0)
(0 -0 0)
(0 -0 0)
(0 -0 0)
(0 -0 0)
(0 -0 0)
(0 -0 0)
(0 -0 0)
(0 -0 0)
(0 -0 0)
(0 -0 0)
(0 -0 0)
(0 -0 0)
(0 -0 0)
(0 -0 0)
(0 -0 0)
(0 -0 0)
(0 -0 0)
(0 -0 0)
(0 -0 0)
(0 -0 0)
(0 -0 0)
(0 -0 0)
(0 -0 0)
(0 -0 0)
(0 -0 0)
(0 -0 0)
(0 -0 0)
(0 -0 0)
(0 -0 0)
(0 -0 0)
(0 -0 0)
(0 -0 0)
(0 -0 0)
(0 -0 0)
(0 -0 0)
(0 -0 0)
(0 -0 0)
(0 -0 0)
(0 -0 0)
(0 -0 0)
(0 -0 0)
(0 -0 0)
(0 -0 0)
(0 -0 0)
(0 -0 0)
(0 -0 0)
(0 -0 0)
(0 -0 0)
(0 -0 0)
(0 -0 0)
(0 -0 0)
(0 -0 0)
(0 -0 0)
(0 -0 0)
(0 -0 0)
(0 -0 0)
(0 -0 0)
(0 -0 0)
(0 -0 0)
(0 -0 0)
(0 -0 0)
(0 -0 0)
(0 -0 0)
(0 -0 0)
(0 -0 0)
(0 -0 0)
(0 -0 0)
(0 -0 0)
(0 -0 0)
(0 -0 0)
(0 -0 0)
(0 -0 0)
(0 -0 0)
(0 -0 0)
(0 -0 0)
(0 -0 0)
(0 -0 0)
(0 -0 0)
(0 -0 0)
(0 -0 0)
(0 -0 0)
(0 -0 0)
(0 -0 0)
(0 -0 0)
(0 -0 0)
(0 -0 0)
(0 -0 0)
(0 -0 0)
(0 -0 0)
(0 -0 0)
(0 -0 0)
(0 -0 0)
(0 -0 0)
(0 -0 0)
(0 -0 0)
(0 -0 0)
(0 -0 0)
(0 -0 0)
(0 -0 0)
(0 -0 0)
(0 -0 0)
(0 -0 0)
(0 -0 0)
(0 -0 0)
(0 -0 0)
(0 -0 0)
(0 -0 0)
(0 -0 0)
(0 -0 0)
(0 -0 0)
(0 -0 0)
(0 -0 0)
(0 -0 0)
(0 -0 0)
(0 -0 0)
(0 -0 0)
(0 -0 0)
(0 -0 0)
(0 -0 0)
(0 -0 0)
(0 -0 0)
(0 -0 0)
(0 -0 0)
(0 -0 0)
(0 -0 0)
(0 -0 0)
(0 -0 0)
(0 -0 0)
(0 -0 0)
(0 -0 0)
(0 -0 0)
(0 -0 0)
(0 -0 0)
(0 -0 0)
(0 -0 0)
(0 -0 0)
(0 -0 0)
(0 -0 0)
(0 -0 0)
(0 -0 0)
(0 -0 0)
(0 -0 0)
(0 -0 0)
(0 -0 0)
(0 -0 0)
(0 -0 0)
(0 -0 0)
(0 -0 0)
(0 -0 0)
(0 -0 0)
(0 -0 0)
(0 -0 0)
(0 -0 0)
(0 -0 0)
(0 -0 0)
(0 -0 0)
(0 -0 0)
(0 -0 0)
(0 -0 0)
(0 -0 0)
(0 -0 0)
(0 -0 0)
(0 -0 0)
(0 -0 0)
(0 -0 0)
(0 -0 0)
(0 -0 0)
(0 -0 0)
(0 -0 0)
(0 -0 0)
(0 -0 0)
(0 -0 0)
(0 -0 0)
(0 -0 0)
(0 -0 0)
(0 -0 0)
(0 -0 0)
(0 -0 0)
(0 -0 0)
(0 -0 0)
(0 -0 0)
(0 -0 0)
(0 -0 0)
(0 -0 0)
(0 -0 0)
(0 -0 0)
(0 -0 0)
(0 -0 0)
(0 -0 0)
(0 -0 0)
(0 -0 0)
(0 -0 0)
(0 -0 0)
(0 -0 0)
(0 -0 0)
(0 -0 0)
(0 -0 0)
(0 -0 0)
(0 -0 0)
(0 -0 0)
(0 -0 0)
(0 -0 0)
(0 -0 0)
(0 -0 0)
(0 -0 0)
(0 -0 0)
(0 -0 0)
(0 -0 0)
(0 -0 0)
(0 -0 0)
(0 -0 0)
(0 -0 0)
(0 -0 0)
(0 -0 0)
(0 -0 0)
(0 -0 0)
(0 -0 0)
(0 -0 0)
(0 -0 0)
(0 -0 0)
(0 -0 0)
(0 -0 0)
(0 -0 0)
(0 -0 0)
(0 -0 0)
(0 -0 0)
(0 -0 0)
(0 -0 0)
(0 -0 0)
(0 -0 0)
(0 -0 0)
(0 -0 0)
)
;

boundaryField
{
    INLE1
    {
        type            calculated;
        value           uniform (0 -0 0);
    }
    PRES2
    {
        type            calculated;
        value           uniform (0 -0 0);
    }
    WALL3
    {
        type            calculated;
        value           nonuniform List<vector> 
66
(
(0 -0 0)
(0 -0 0)
(0 -0 0)
(0 -0 0)
(0 -0 0)
(0 -0 0)
(0 -0 0)
(0 -0 0)
(0 -0 0)
(0 -0 0)
(0 -0 0)
(0 -0 0)
(0 -0 0)
(0 -0 0)
(0 -0 0)
(0 -0 0)
(0 -0 0)
(0 -0 0)
(0 -0 0)
(0 -0 0)
(0 -0 0)
(0 -0 0)
(0 -5.92374393132e-16 0)
(0 9.77435345808e-16 0)
(0 -3.54317421849e-16 0)
(0 -4.02637496243e-16 0)
(0 4.21700607159e-16 0)
(0 -3.40993809793e-16 0)
(0 4.92160241711e-16 0)
(0 2.20582354473e-17 0)
(0 -3.02428897353e-16 0)
(0 6.38129880919e-17 0)
(0 6.44533274388e-17 0)
(0 5.07180716908e-17 0)
(0 -4.54184968626e-18 0)
(0 -8.63274405838e-17 0)
(0 -2.27785043599e-16 0)
(0 4.76067808739e-16 0)
(0 -3.75558484469e-16 0)
(0 3.3836923393e-16 0)
(0 -2.04135910367e-16 0)
(0 -2.38848859509e-16 0)
(0 -9.03901192825e-17 0)
(0 2.36991225534e-16 0)
(0 -0 0)
(0 -0 0)
(0 -0 0)
(0 -0 0)
(0 -0 0)
(0 -0 0)
(0 -0 0)
(0 -0 0)
(0 -0 0)
(0 -0 0)
(0 -0 0)
(0 -0 0)
(0 -0 0)
(0 -0 0)
(0 -0 0)
(0 -0 0)
(0 -0 0)
(0 -0 0)
(0 -0 0)
(0 -0 0)
(0 -0 0)
(0 -0 0)
)
;
    }
    WALL4
    {
        type            calculated;
        value           nonuniform List<vector> 
66
(
(0 -0 0)
(0 -0 0)
(0 -0 0)
(0 -0 0)
(0 -0 0)
(0 -0 0)
(0 -0 0)
(0 -0 0)
(0 -0 0)
(0 -0 0)
(0 -0 0)
(0 -0 0)
(0 -0 0)
(0 -0 0)
(0 -0 0)
(0 -0 0)
(0 -0 0)
(0 -0 0)
(0 -0 0)
(0 -0 0)
(0 -0 0)
(0 -0 0)
(0 1.6265581602e-15 -9.09494701773e-13)
(0 2.03269091254e-14 -4.54747350886e-13)
(0 -3.24859376089e-14 2.27373675443e-13)
(-1.57772181044e-30 3.83770829022e-15 -4.54747350886e-13)
(0 2.73763205796e-15 9.09494701773e-13)
(0 -6.77545168413e-16 1.13686837722e-13)
(-3.94430452611e-31 4.7887830994e-15 0)
(2.46519032882e-32 -1.2911942575e-15 6.8212102633e-13)
(0 -5.55760122087e-15 -3.69482222595e-13)
(0 -7.3468239724e-16 4.12114786741e-13)
(0 3.24871277113e-15 -2.0605739337e-13)
(-6.16297582204e-33 2.80728729323e-15 -2.57571741713e-13)
(0 7.38080782743e-16 4.19220214098e-13)
(0 -8.27034384213e-16 -3.41060513165e-13)
(3.94430452611e-31 -1.13894462743e-14 5.68434188608e-13)
(0 -4.81372518155e-15 0)
(0 6.80438599737e-16 0)
(1.97215226305e-31 -2.80245881576e-15 0)
(-7.88860905221e-31 -3.93100107023e-15 -6.8212102633e-13)
(0 3.25554025368e-14 4.54747350886e-13)
(0 -2.02478044263e-14 -4.54747350886e-13)
(7.88860905221e-31 -1.62589447176e-15 -9.09494701773e-13)
(0 -0 0)
(0 -0 0)
(0 -0 0)
(0 -0 0)
(0 -0 0)
(0 -0 0)
(0 -0 0)
(0 -0 0)
(0 -0 0)
(0 -0 0)
(0 -0 0)
(0 -0 0)
(0 -0 0)
(0 -0 0)
(0 -0 0)
(0 -0 0)
(0 -0 0)
(0 -0 0)
(0 -0 0)
(0 -0 0)
(0 -0 0)
(0 -0 0)
)
;
    }
    defaultFaces
    {
        type            empty;
    }
}


// ************************************************************************* //
